                         Program Version 4.2.0 -  RELEASE  -
|  1> ! RHF DEF2-TZVP PrintBasis
|  2> * xyz 0 1
|  3> 6        6.635414268      3.240210178      5.545565612
|  4> 1        7.165848214      2.288876355      5.621755642
|  5> 1        7.351961953      4.062069979      5.603072260
|  6> 1        5.918866583      3.324054443      6.365157393
|  7> 1        6.104980323      3.285839933      4.592277152
|  8> *
|  9>
| 10>                          ****END OF INPUT****

CARTESIAN COORDINATES (ANGSTROEM)
---------------------------------
  C      6.635414    3.240210    5.545566
  H      7.165848    2.288876    5.621756
  H      7.351962    4.062070    5.603072
  H      5.918867    3.324054    6.365157
  H      6.104980    3.285840    4.592277

 Total Charge           Charge          ....    0
 Multiplicity           Mult            ....    1
 Number of Electrons    NEL             ....   10
 Basis Dimension        Dim             ....   55

ORBITAL ENERGIES
----------------

  NO   OCC          E(Eh)            E(eV)
   0   2.0000     -11.207862      -304.9814
   1   2.0000      -0.941579       -25.6217
   2   2.0000      -0.544389       -14.8136
   3   2.0000      -0.544389       -14.8136
   4   2.0000      -0.544389       -14.8136
   5   0.0000       0.149308         4.0629
   6   0.0000       0.236768         6.4428
   7   0.0000       0.236768         6.4428
   8   0.0000       0.236768         6.4428
   9   0.0000       0.313737         8.5372

MULLIKEN ATOMIC CHARGES
-----------------------
   0 C :   -0.446761
   1 H :    0.111690
   2 H :    0.111690
   3 H :    0.111690
   4 H :    0.111690
Sum of atomic charges:   -0.0000000

LOEWDIN ATOMIC CHARGES
----------------------
   0 C :   -0.376844
   1 H :    0.094211
   2 H :    0.094211
   3 H :    0.094211
   4 H :    0.094211

  Mayer bond orders larger than 0.100000
B(  0-C ,  1-H ) :   0.9822 B(  0-C ,  2-H ) :   0.9822 B(  0-C ,  3-H ) :   0.9822
B(  0-C ,  4-H ) :   0.9822

FINAL SINGLE POINT ENERGY       -40.212882203886

DIPOLE MOMENT
-------------
                                X             Y             Z
Electronic contribution:     -0.00000       0.00000       0.00000
Nuclear contribution   :      0.00000      -0.00000      -0.00000
                        -----------------------------------------
Total Dipole Moment    :     -0.00000       0.00000       0.00000
                        -----------------------------------------
Magnitude (a.u.)       :      0.00000
Magnitude (Debye)      :      0.00000

Rotational constants in cm-1:     5.260392     5.260392     5.260392
Rotational constants in MHz : 157702.584075 157702.583933 157702.583897

                             ****ORCA TERMINATED NORMALLY****
TOTAL RUN TIME: 0 days 0 hours 0 minutes 6 seconds 853 msec
